version 2
run case3-0-20200813-13:33:15-6460
attr configname case3
attr datetime 20200813-13:33:15
attr experiment case3
attr inifile omnetpp.ini
attr isMINcriticalConnectivityStrip2 10
attr iterationvars "$maxOnTheWayDistX=800, $maxOnTheWayDistY=800, $transmissionRange=100, $isMINcriticalConnectivityStrip2=10, $speed1=120"
attr iterationvars2 "$maxOnTheWayDistX=800, $maxOnTheWayDistY=800, $transmissionRange=100, $isMINcriticalConnectivityStrip2=10, $speed1=120, $repetition=0"
attr maxOnTheWayDistX 800
attr maxOnTheWayDistY 800
attr measurement "$maxOnTheWayDistX=800, $maxOnTheWayDistY=800, $transmissionRange=100, $isMINcriticalConnectivityStrip2=10, $speed1=120"
attr network Net
attr processid 6460
attr repetition 0
attr replication #0
attr resultdir results
attr runnumber 0
attr seedset 2
attr speed1 120
attr transmissionRange 100

vector 8  Net.host[0].wlan[0].queue  queueLength:vector  ETV
attr interpolationmode  sample-hold
attr title  "queue length, vector"
vector 22  Net.host[1].wlan[0].queue  queueLength:vector  ETV
attr interpolationmode  sample-hold
attr title  "queue length, vector"
vector 36  Net.host[2].wlan[0].queue  queueLength:vector  ETV
attr interpolationmode  sample-hold
attr title  "queue length, vector"
vector 50  Net.host[3].wlan[0].queue  queueLength:vector  ETV
attr interpolationmode  sample-hold
attr title  "queue length, vector"
vector 64  Net.host[4].wlan[0].queue  queueLength:vector  ETV
attr interpolationmode  sample-hold
attr title  "queue length, vector"
vector 78  Net.host[5].wlan[0].queue  queueLength:vector  ETV
attr interpolationmode  sample-hold
attr title  "queue length, vector"
vector 92  Net.host[6].wlan[0].queue  queueLength:vector  ETV
attr interpolationmode  sample-hold
attr title  "queue length, vector"
vector 106  Net.host[7].wlan[0].queue  queueLength:vector  ETV
attr interpolationmode  sample-hold
attr title  "queue length, vector"
vector 120  Net.host[8].wlan[0].queue  queueLength:vector  ETV
attr interpolationmode  sample-hold
attr title  "queue length, vector"
vector 134  Net.host[9].wlan[0].queue  queueLength:vector  ETV
attr interpolationmode  sample-hold
attr title  "queue length, vector"
vector 145  Net.drone[0].wlan[0].queue  queueLength:vector  ETV
attr interpolationmode  sample-hold
attr title  "queue length, vector"
vector 156  Net.drone[1].wlan[0].queue  queueLength:vector  ETV
attr interpolationmode  sample-hold
attr title  "queue length, vector"
vector 167  Net.drone[2].wlan[0].queue  queueLength:vector  ETV
attr interpolationmode  sample-hold
attr title  "queue length, vector"
vector 178  Net.drone[3].wlan[0].queue  queueLength:vector  ETV
attr interpolationmode  sample-hold
attr title  "queue length, vector"
vector 189  Net.drone[4].wlan[0].queue  queueLength:vector  ETV
attr interpolationmode  sample-hold
attr title  "queue length, vector"
vector 200  Net.drone[5].wlan[0].queue  queueLength:vector  ETV
attr interpolationmode  sample-hold
attr title  "queue length, vector"
vector 211  Net.drone[6].wlan[0].queue  queueLength:vector  ETV
attr interpolationmode  sample-hold
attr title  "queue length, vector"
vector 222  Net.drone[7].wlan[0].queue  queueLength:vector  ETV
attr interpolationmode  sample-hold
attr title  "queue length, vector"
vector 233  Net.drone[8].wlan[0].queue  queueLength:vector  ETV
attr interpolationmode  sample-hold
attr title  "queue length, vector"
vector 244  Net.drone[9].wlan[0].queue  queueLength:vector  ETV
attr interpolationmode  sample-hold
attr title  "queue length, vector"
vector 255  Net.drone[10].wlan[0].queue  queueLength:vector  ETV
attr interpolationmode  sample-hold
attr title  "queue length, vector"
vector 266  Net.drone[11].wlan[0].queue  queueLength:vector  ETV
attr interpolationmode  sample-hold
attr title  "queue length, vector"
vector 277  Net.drone[12].wlan[0].queue  queueLength:vector  ETV
attr interpolationmode  sample-hold
attr title  "queue length, vector"
vector 288  Net.drone[13].wlan[0].queue  queueLength:vector  ETV
attr interpolationmode  sample-hold
attr title  "queue length, vector"
vector 299  Net.drone[14].wlan[0].queue  queueLength:vector  ETV
attr interpolationmode  sample-hold
attr title  "queue length, vector"
vector 313  Net.cc.wlan[0].queue  queueLength:vector  ETV
attr interpolationmode  sample-hold
attr title  "queue length, vector"
vector 319  Net.host[0].wlan[0].mac  "queue length vec"  ETV
vector 320  Net.host[1].wlan[0].mac  "queue length vec"  ETV
vector 321  Net.host[2].wlan[0].mac  "queue length vec"  ETV
vector 322  Net.host[3].wlan[0].mac  "queue length vec"  ETV
vector 323  Net.host[4].wlan[0].mac  "queue length vec"  ETV
vector 324  Net.host[5].wlan[0].mac  "queue length vec"  ETV
vector 325  Net.host[6].wlan[0].mac  "queue length vec"  ETV
vector 326  Net.host[7].wlan[0].mac  "queue length vec"  ETV
vector 327  Net.host[8].wlan[0].mac  "queue length vec"  ETV
vector 328  Net.host[9].wlan[0].mac  "queue length vec"  ETV
vector 329  Net.drone[0].wlan[0].mac  "queue length vec"  ETV
vector 330  Net.drone[1].wlan[0].mac  "queue length vec"  ETV
vector 331  Net.drone[2].wlan[0].mac  "queue length vec"  ETV
vector 332  Net.drone[3].wlan[0].mac  "queue length vec"  ETV
vector 333  Net.drone[4].wlan[0].mac  "queue length vec"  ETV
vector 334  Net.drone[5].wlan[0].mac  "queue length vec"  ETV
vector 335  Net.drone[6].wlan[0].mac  "queue length vec"  ETV
vector 336  Net.drone[7].wlan[0].mac  "queue length vec"  ETV
vector 337  Net.drone[8].wlan[0].mac  "queue length vec"  ETV
vector 338  Net.drone[9].wlan[0].mac  "queue length vec"  ETV
vector 339  Net.drone[10].wlan[0].mac  "queue length vec"  ETV
vector 340  Net.drone[11].wlan[0].mac  "queue length vec"  ETV
vector 341  Net.drone[12].wlan[0].mac  "queue length vec"  ETV
vector 342  Net.drone[13].wlan[0].mac  "queue length vec"  ETV
vector 343  Net.drone[14].wlan[0].mac  "queue length vec"  ETV
vector 344  Net.cc.wlan[0].mac  "queue length vec"  ETV
vector 345  Net.channelControl  "Total Number Of Drones"  ETV
8	0	0	0
22	0	0	0
36	0	0	0
50	0	0	0
64	0	0	0
78	0	0	0
92	0	0	0
106	0	0	0
120	0	0	0
134	0	0	0
145	0	0	0
156	0	0	0
167	0	0	0
178	0	0	0
189	0	0	0
200	0	0	0
211	0	0	0
222	0	0	0
233	0	0	0
244	0	0	0
255	0	0	0
266	0	0	0
277	0	0	0
288	0	0	0
299	0	0	0
313	0	0	0
319	53	0.1	1
319	110	0.3	1
319	176	0.5	1
319	233	0.7	1
319	289	0.9	1
319	355	1.1	1
319	411	1.3	1
319	477	1.5	1
319	534	1.7	1
319	590	1.9	1
319	657	2.1	1
319	713	2.3	1
319	779	2.5	1
319	836	2.7	1
319	892	2.9	1
319	959	3.1	1
319	1015	3.3	1
319	1081	3.5	1
319	1146	3.7	1
319	1203	3.9	1
319	1270	4.1	1
319	1327	4.3	1
319	1393	4.5	1
319	1450	4.7	1
319	1506	4.9	1
319	1574	5.1	1
319	1630	5.3	1
319	1696	5.5	1
319	1754	5.7	1
319	1810	5.9	1
319	1878	6.1	1
319	1934	6.3	1
319	2000	6.5	1
319	2058	6.7	1
319	2114	6.9	1
319	2182	7.1	1
319	2238	7.3	1
319	2304	7.5	1
319	2361	7.7	1
319	2417	7.9	1
319	2484	8.1	1
319	2541	8.3	1
319	2607	8.5	1
319	2664	8.7	1
319	2720	8.9	1
319	2787	9.1	1
319	2844	9.3	1
319	2910	9.5	1
319	2968	9.7	1
319	3024	9.9	1
319	3091	10.1	1
319	3148	10.3	1
319	3214	10.5	1
319	3272	10.7	1
319	3328	10.9	1
319	3395	11.1	1
319	3452	11.3	1
319	3518	11.5	1
319	3576	11.7	1
319	3632	11.9	1
319	3698	12.1	1
319	3755	12.3	1
319	3821	12.5	1
319	3879	12.7	1
319	3935	12.9	1
319	4003	13.1	1
319	4059	13.3	1
319	4125	13.5	1
319	4183	13.7	1
319	4239	13.9	1
319	4307	14.1	1
319	4363	14.3	1
319	4429	14.5	1
319	4487	14.7	1
319	4543	14.9	1
319	4610	15.1	1
319	4666	15.3	1
319	4732	15.5	1
319	4791	15.7	1
319	4847	15.9	1
319	4913	16.1	1
319	4970	16.3	1
319	5035	16.5	1
319	5094	16.7	1
319	5150	16.9	1
319	5217	17.1	1
319	5274	17.3	1
319	5339	17.5	1
319	5398	17.7	1
319	5454	17.9	1
319	5521	18.1	1
319	5578	18.3	1
319	5643	18.5	1
319	5702	18.7	1
319	5758	18.9	1
319	5825	19.1	1
319	5882	19.3	1
319	5947	19.5	1
319	6005	19.7	1
319	6061	19.9	1
319	6129	20.1	1
319	6185	20.3	1
319	6250	20.5	1
319	6309	20.7	1
319	6365	20.9	1
319	6433	21.1	1
319	6489	21.3	1
319	6554	21.5	1
319	6613	21.7	1
319	6669	21.9	1
319	6736	22.1	1
319	6792	22.3	1
319	6858	22.5	1
319	6916	22.7	1
319	6972	22.9	1
319	7039	23.1	1
319	7096	23.3	1
319	7162	23.5	1
319	7219	23.7	1
319	7275	23.9	1
319	7342	24.1	1
319	7399	24.3	1
319	7465	24.5	1
319	7523	24.7	1
319	7579	24.9	1
319	7646	25.1	1
319	7703	25.3	1
319	7769	25.5	1
319	7827	25.7	1
319	7883	25.9	1
319	7950	26.1	1
319	8007	26.3	1
319	8073	26.5	1
319	8131	26.7	1
319	8187	26.9	1
319	8253	27.1	1
319	8310	27.3	1
319	8376	27.5	1
319	8434	27.7	1
319	8490	27.9	1
319	8558	28.1	1
319	8614	28.3	1
319	8680	28.5	1
319	8738	28.7	1
319	8794	28.9	1
319	8862	29.1	1
319	8918	29.3	1
319	8984	29.5	1
319	9041	29.7	1
319	9097	29.9	1
319	9164	30.1	1
319	9221	30.3	1
319	9287	30.5	1
319	9345	30.7	1
319	9401	30.9	1
319	9467	31.1	1
319	9524	31.3	1
319	9590	31.5	1
319	9657	31.7	1
319	9744	31.9	1
319	9814	32.1	1
319	9874	32.3	1
319	9944	32.5	1
319	10005	32.7	1
319	10065	32.9	1
319	10136	33.1	1
319	10196	33.3	1
319	10266	33.5	1
319	10327	33.7	1
319	10387	33.9	1
319	10458	34.1	1
319	10518	34.3	1
319	10588	34.5	1
319	10648	34.7	1
319	10708	34.9	1
319	10779	35.1	1
319	10837	35.3	1
319	10907	35.5	1
319	10968	35.7	1
319	11028	35.9	1
319	11098	36.1	1
319	11157	36.3	1
319	11227	36.5	1
319	11288	36.7	1
319	11348	36.9	1
319	11419	37.1	1
319	11478	37.3	1
319	11548	37.5	1
319	11630	37.7	1
319	11736	37.9	1
319	11805	38.1	1
319	11881	38.3	1
319	11985	38.5	1
319	12080	38.7	1
319	12140	38.9	1
319	12208	39.1	1
319	12266	39.3	1
319	12335	39.5	1
319	12397	39.7	1
319	12459	39.9	1
319	12533	40.1	1
319	12595	40.3	1
319	12667	40.5	1
319	12729	40.7	1
319	12791	40.9	1
319	12865	41.1	1
319	12927	41.3	1
319	12999	41.5	1
319	13063	41.7	1
319	13125	41.9	1
319	13198	42.1	1
319	13260	42.3	1
319	13332	42.5	1
319	13420	42.7	1
319	13482	42.9	1
319	13552	43.1	1
319	13614	43.3	1
319	13686	43.5	1
319	13750	43.7	1
319	13812	43.9	1
319	13886	44.1	1
319	13948	44.3	1
319	14020	44.5	1
319	14084	44.7	1
319	14146	44.9	1
319	14219	45.1	1
319	14280	45.3	1
319	14352	45.5	1
319	14415	45.7	1
319	14477	45.9	1
319	14549	46.1	1
319	14610	46.3	1
319	14682	46.5	1
319	14746	46.7	1
319	14806	46.9	1
319	14879	47.1	1
319	14941	47.3	1
319	15013	47.5	1
319	15077	47.7	1
319	15139	47.9	1
319	15213	48.1	1
319	15275	48.3	1
319	15347	48.5	1
319	15410	48.7	1
319	15472	48.9	1
319	15570	49.1	1
319	15631	49.3	1
319	15702	49.5	1
319	15766	49.7	1
319	15828	49.9	1
319	15901	50.1	1
319	15961	50.3	1
319	16033	50.5	1
319	16097	50.7	1
319	16159	50.9	1
319	16232	51.1	1
319	16294	51.3	1
319	16366	51.5	1
319	16430	51.7	1
319	16492	51.9	1
319	16566	52.1	1
319	16628	52.3	1
319	16700	52.5	1
319	16764	52.7	1
319	16826	52.9	1
319	16898	53.1	1
319	16959	53.3	1
319	17031	53.5	1
319	17095	53.7	1
319	17157	53.9	1
319	17229	54.1	1
319	17290	54.3	1
319	17362	54.5	1
319	17426	54.7	1
319	17486	54.9	1
319	17559	55.1	1
319	17621	55.3	1
319	17693	55.5	1
319	17780	55.7	1
319	17841	55.9	1
319	17923	56.1	1
319	18104	56.3	1
319	18175	56.5	1
319	18233	56.7	1
319	18292	56.9	1
319	18360	57.1	1
319	18417	57.3	1
319	18483	57.5	1
319	18539	57.7	1
319	18595	57.9	1
319	18663	58.1	1
319	18719	58.3	1
319	18785	58.5	1
319	18842	58.7	1
319	18898	58.9	1
319	18965	59.1	1
319	19021	59.3	1
319	19087	59.5	1
319	19144	59.7	1
319	19200	59.9	1
319	19267	60.1	1
319	19323	60.3	1
319	19389	60.5	1
319	19445	60.7	1
319	19501	60.9	1
319	19568	61.1	1
319	19624	61.3	1
319	19690	61.5	1
319	19747	61.7	1
319	19803	61.9	1
319	19870	62.1	1
319	19926	62.3	1
319	19992	62.5	1
319	20049	62.7	1
319	20105	62.9	1
319	20172	63.1	1
319	20228	63.3	1
319	20294	63.5	1
319	20350	63.7	1
319	20406	63.9	1
319	20473	64.1	1
319	20529	64.3	1
319	20595	64.5	1
319	20652	64.7	1
319	20708	64.9	1
319	20775	65.1	1
319	20831	65.3	1
319	20897	65.5	1
319	20954	65.7	1
319	21010	65.9	1
319	21077	66.1	1
319	21133	66.3	1
319	21199	66.5	1
319	21256	66.7	1
319	21312	66.9	1
319	21378	67.1	1
319	21434	67.3	1
319	21500	67.5	1
319	21557	67.7	1
319	21613	67.9	1
319	21680	68.1	1
319	21736	68.3	1
319	21802	68.5	1
319	21859	68.7	1
319	21915	68.9	1
319	21982	69.1	1
319	22038	69.3	1
319	22104	69.5	1
319	22161	69.7	1
319	22217	69.9	1
319	22283	70.1	1
319	22339	70.3	1
319	22405	70.5	1
319	22462	70.7	1
319	22518	70.9	1
319	22585	71.1	1
319	22641	71.3	1
319	22707	71.5	1
319	22764	71.7	1
319	22820	71.9	1
319	22887	72.1	1
319	22943	72.3	1
319	23009	72.5	1
319	23066	72.7	1
319	23122	72.9	1
319	23188	73.1	1
319	23244	73.3	1
319	23310	73.5	1
319	23367	73.7	1
319	23423	73.9	1
319	23490	74.1	1
319	23546	74.3	1
319	23612	74.5	1
319	23669	74.7	1
319	23725	74.9	1
319	23792	75.1	1
319	23848	75.3	1
319	23914	75.5	1
319	23971	75.7	1
319	24027	75.9	1
319	24094	76.1	1
319	24150	76.3	1
319	24216	76.5	1
319	24272	76.7	1
319	24328	76.9	1
319	24395	77.1	1
319	24451	77.3	1
319	24517	77.5	1
319	24574	77.7	1
319	24630	77.9	1
319	24697	78.1	1
319	24753	78.3	1
319	24819	78.5	1
319	24876	78.7	1
319	24932	78.9	1
319	24999	79.1	1
319	25055	79.3	1
319	25121	79.5	1
319	25177	79.7	1
319	25233	79.9	1
319	25300	80.1	1
319	25356	80.3	1
319	25422	80.5	1
319	25479	80.7	1
319	25535	80.9	1
319	25602	81.1	1
319	25658	81.3	1
319	25724	81.5	1
319	25781	81.7	1
319	25837	81.9	1
319	25904	82.1	1
319	25960	82.3	1
319	26026	82.5	1
319	26082	82.7	1
319	26138	82.9	1
319	26205	83.1	1
319	26261	83.3	1
319	26328	83.5	1
319	26385	83.7	1
319	26442	83.9	1
319	26508	84.1	1
319	26564	84.3	1
319	26630	84.5	1
319	26687	84.7	1
319	26744	84.9	1
319	26810	85.1	1
319	26866	85.3	1
319	26932	85.5	1
319	26989	85.7	1
319	27046	85.9	1
319	27112	86.1	1
319	27168	86.3	1
319	27234	86.5	1
319	27290	86.7	1
319	27347	86.9	1
319	27413	87.1	1
319	27469	87.3	1
319	27535	87.5	1
319	27592	87.7	1
319	27649	87.9	1
319	27715	88.1	1
319	27771	88.3	1
319	27837	88.5	1
319	27894	88.7	1
319	27951	88.9	1
319	28017	89.1	1
319	28073	89.3	1
319	28139	89.5	1
319	28196	89.7	1
319	28253	89.9	1
319	28318	90.1	1
319	28374	90.3	1
319	28440	90.5	1
319	28496	90.7	1
319	28553	90.9	1
319	28619	91.1	1
319	28675	91.3	1
319	28741	91.5	1
319	28797	91.7	1
319	28853	91.9	1
319	28919	92.1	1
319	28975	92.3	1
319	29041	92.5	1
319	29097	92.7	1
319	29153	92.9	1
319	29219	93.1	1
319	29275	93.3	1
319	29341	93.5	1
319	29397	93.7	1
319	29453	93.9	1
319	29519	94.1	1
319	29575	94.3	1
319	29641	94.5	1
319	29697	94.7	1
319	29754	94.9	1
319	29819	95.1	1
319	29875	95.3	1
319	29941	95.5	1
319	29997	95.7	1
319	30054	95.9	1
319	30119	96.1	1
319	30175	96.3	1
319	30241	96.5	1
319	30297	96.7	1
319	30354	96.9	1
319	30419	97.1	1
319	30475	97.3	1
319	30541	97.5	1
319	30597	97.7	1
319	30654	97.9	1
319	30719	98.1	1
319	30775	98.3	1
319	30841	98.5	1
319	30897	98.7	1
319	30955	98.9	1
319	31019	99.1	1
319	31075	99.3	1
319	31141	99.5	1
319	31197	99.7	1
319	31255	99.9	1
319	31319	100.1	1
319	31376	100.3	1
319	31441	100.5	1
319	31498	100.7	1
319	31555	100.9	1
319	31619	101.1	1
319	31676	101.3	1
319	31741	101.5	1
319	31798	101.7	1
319	31855	101.9	1
319	31919	102.1	1
319	31976	102.3	1
319	32041	102.5	1
319	32098	102.7	1
319	32155	102.9	1
319	32219	103.1	1
319	32276	103.3	1
319	32341	103.5	1
319	32398	103.7	1
319	32455	103.9	1
319	32519	104.1	1
319	32576	104.3	1
319	32641	104.5	1
319	32698	104.7	1
319	32755	104.9	1
319	32819	105.1	1
319	32877	105.3	1
319	32941	105.5	1
319	32999	105.7	1
319	33055	105.9	1
319	33119	106.1	1
319	33177	106.3	1
319	33241	106.5	1
319	33299	106.7	1
319	33355	106.9	1
319	33419	107.1	1
319	33477	107.3	1
319	33541	107.5	1
319	33599	107.7	1
319	33655	107.9	1
319	33719	108.1	1
319	33777	108.3	1
319	33841	108.5	1
319	33899	108.7	1
319	33955	108.9	1
319	34019	109.1	1
319	34077	109.3	1
319	34141	109.5	1
319	34199	109.7	1
319	34255	109.9	1
319	34319	110.1	1
319	34377	110.3	1
319	34441	110.5	1
319	34499	110.7	1
319	34555	110.9	1
319	34619	111.1	1
319	34677	111.3	1
319	34741	111.5	1
319	34800	111.7	1
319	34856	111.9	1
319	34919	112.1	1
319	34978	112.3	1
319	35041	112.5	1
319	35100	112.7	1
319	35156	112.9	1
319	35219	113.1	1
319	35278	113.3	1
319	35341	113.5	1
319	35400	113.7	1
319	35456	113.9	1
319	35519	114.1	1
319	35578	114.3	1
319	35641	114.5	1
319	35700	114.7	1
319	35756	114.9	1
319	35819	115.1	1
319	35878	115.3	1
319	35941	115.5	1
319	36000	115.7	1
319	36056	115.9	1
319	36119	116.1	1
319	36178	116.3	1
319	36241	116.5	1
319	36300	116.7	1
319	36356	116.9	1
319	36419	117.1	1
319	36478	117.3	1
319	36541	117.5	1
319	36600	117.7	1
319	36656	117.9	1
319	36719	118.1	1
319	36778	118.3	1
319	36841	118.5	1
319	36900	118.7	1
319	36956	118.9	1
319	37020	119.1	1
319	37078	119.3	1
319	37141	119.5	1
319	37200	119.7	1
319	37256	119.9	1
319	37320	120.1	1
319	37378	120.3	1
319	37441	120.5	1
319	37500	120.7	1
319	37556	120.9	1
319	37620	121.1	1
319	37678	121.3	1
319	37741	121.5	1
319	37800	121.7	1
319	37856	121.9	1
319	37920	122.1	1
319	37978	122.3	1
319	38041	122.5	1
319	38100	122.7	1
319	38156	122.9	1
319	38220	123.1	1
319	38279	123.3	1
319	38341	123.5	1
319	38401	123.7	1
319	38457	123.9	1
319	38520	124.1	1
319	38579	124.3	1
319	38641	124.5	1
319	38701	124.7	1
319	38757	124.9	1
319	38820	125.1	1
319	38879	125.3	1
319	38941	125.5	1
319	39001	125.7	1
319	39057	125.9	1
319	39120	126.1	1
319	39179	126.3	1
319	39241	126.5	1
319	39301	126.7	1
319	39357	126.9	1
319	39420	127.1	1
319	39479	127.3	1
319	39541	127.5	1
319	39601	127.7	1
319	39657	127.9	1
319	39720	128.1	1
319	39779	128.3	1
319	39841	128.5	1
319	39901	128.7	1
319	39957	128.9	1
319	40020	129.1	1
319	40079	129.3	1
319	40141	129.5	1
319	40201	129.7	1
319	40257	129.9	1
319	40320	130.1	1
319	40379	130.3	1
319	40441	130.5	1
319	40501	130.7	1
319	40557	130.9	1
319	40620	131.1	1
319	40679	131.3	1
319	40741	131.5	1
319	40801	131.7	1
319	40857	131.9	1
319	40920	132.1	1
319	40979	132.3	1
319	41041	132.5	1
319	41101	132.7	1
319	41157	132.9	1
319	41220	133.1	1
319	41279	133.3	1
319	41341	133.5	1
319	41401	133.7	1
319	41457	133.9	1
319	41520	134.1	1
319	41579	134.3	1
319	41641	134.5	1
319	41701	134.7	1
319	41757	134.9	1
319	41820	135.1	1
319	41879	135.3	1
319	41941	135.5	1
319	42001	135.7	1
319	42057	135.9	1
319	42120	136.1	1
319	42179	136.3	1
319	42241	136.5	1
319	42301	136.7	1
319	42357	136.9	1
319	42420	137.1	1
319	42479	137.3	1
319	42541	137.5	1
319	42601	137.7	1
319	42657	137.9	1
319	42720	138.1	1
319	42779	138.3	1
319	42841	138.5	1
319	42901	138.7	1
319	42957	138.9	1
319	43020	139.1	1
319	43079	139.3	1
319	43142	139.5	1
319	43201	139.7	1
319	43258	139.9	1
319	43321	140.1	1
319	43379	140.3	1
319	43443	140.5	1
319	43502	140.7	1
319	43559	140.9	1
319	43622	141.1	1
319	43680	141.3	1
319	43743	141.5	1
319	43802	141.7	1
319	43859	141.9	1
319	43922	142.1	1
319	43980	142.3	1
319	44043	142.5	1
319	44102	142.7	1
319	44160	142.9	1
319	44222	143.1	1
319	44281	143.3	1
319	44343	143.5	1
319	44402	143.7	1
319	44460	143.9	1
319	44522	144.1	1
319	44581	144.3	1
319	44643	144.5	1
319	44702	144.7	1
319	44760	144.9	1
319	44823	145.1	1
319	44882	145.3	1
319	44944	145.5	1
319	45004	145.7	1
319	45061	145.9	1
319	45124	146.1	1
319	45183	146.3	1
319	45244	146.5	1
319	45304	146.7	1
319	45361	146.9	1
319	45424	147.1	1
319	45483	147.3	1
319	45544	147.5	1
319	45604	147.7	1
319	45661	147.9	1
319	45724	148.1	1
319	45783	148.3	1
319	45844	148.5	1
319	45904	148.7	1
319	45961	148.9	1
319	46024	149.1	1
319	46084	149.3	1
319	46145	149.5	1
319	46204	149.7	1
319	46262	149.9	1
319	46325	150.1	1
319	46384	150.3	1
319	46446	150.5	1
319	46505	150.7	1
319	46562	150.9	1
319	46625	151.1	1
319	46684	151.3	1
319	46746	151.5	1
319	46805	151.7	1
319	46862	151.9	1
319	46925	152.1	1
319	46984	152.3	1
319	47046	152.5	1
319	47105	152.7	1
319	47162	152.9	1
319	47225	153.1	1
319	47284	153.3	1
319	47346	153.5	1
319	47405	153.7	1
319	47462	153.9	1
319	47525	154.1	1
319	47584	154.3	1
319	47646	154.5	1
319	47705	154.7	1
319	47762	154.9	1
319	47825	155.1	1
319	47884	155.3	1
319	47946	155.5	1
319	48005	155.7	1
319	48062	155.9	1
319	48125	156.1	1
319	48184	156.3	1
319	48246	156.5	1
319	48306	156.7	1
319	48362	156.9	1
319	48425	157.1	1
319	48484	157.3	1
319	48546	157.5	1
319	48606	157.7	1
319	48662	157.9	1
319	48725	158.1	1
319	48784	158.3	1
319	48846	158.5	1
319	48906	158.7	1
319	48962	158.9	1
319	49025	159.1	1
319	49084	159.3	1
319	49146	159.5	1
319	49206	159.7	1
319	49263	159.9	1
319	49325	160.1	1
319	49385	160.3	1
319	49446	160.5	1
319	49506	160.7	1
319	49563	160.9	1
319	49625	161.1	1
319	49685	161.3	1
319	49746	161.5	1
319	49806	161.7	1
319	49863	161.9	1
319	49925	162.1	1
319	49985	162.3	1
319	50046	162.5	1
319	50106	162.7	1
319	50163	162.9	1
319	50225	163.1	1
319	50285	163.3	1
319	50346	163.5	1
319	50406	163.7	1
319	50463	163.9	1
319	50525	164.1	1
319	50585	164.3	1
319	50646	164.5	1
319	50706	164.7	1
319	50763	164.9	1
319	50825	165.1	1
319	50885	165.3	1
319	50946	165.5	1
319	51006	165.7	1
319	51063	165.9	1
319	51126	166.1	1
319	51185	166.3	1
319	51246	166.5	1
319	51307	166.7	1
319	51363	166.9	1
319	51426	167.1	1
319	51485	167.3	1
319	51546	167.5	1
319	51607	167.7	1
319	51663	167.9	1
319	51726	168.1	1
319	51785	168.3	1
319	51846	168.5	1
319	51907	168.7	1
319	51963	168.9	1
319	52026	169.1	1
319	52085	169.3	1
319	52146	169.5	1
319	52207	169.7	1
319	52263	169.9	1
319	52326	170.1	1
319	52385	170.3	1
319	52446	170.5	1
319	52507	170.7	1
319	52563	170.9	1
319	52626	171.1	1
319	52685	171.3	1
319	52746	171.5	1
319	52807	171.7	1
319	52863	171.9	1
319	52926	172.1	1
319	52985	172.3	1
319	53046	172.5	1
319	53107	172.7	1
319	53163	172.9	1
319	53226	173.1	1
319	53285	173.3	1
319	53346	173.5	1
319	53407	173.7	1
319	53463	173.9	1
319	53526	174.1	1
319	53585	174.3	1
319	53646	174.5	1
319	53707	174.7	1
319	53763	174.9	1
319	53826	175.1	1
319	53885	175.3	1
319	53946	175.5	1
319	54007	175.7	1
319	54064	175.9	1
319	54126	176.1	1
319	54185	176.3	1
319	54246	176.5	1
319	54307	176.7	1
319	54364	176.9	1
319	54426	177.1	1
319	54485	177.3	1
319	54546	177.5	1
319	54607	177.7	1
319	54664	177.9	1
319	54726	178.1	1
319	54785	178.3	1
319	54846	178.5	1
319	54907	178.7	1
319	54964	178.9	1
319	55026	179.1	1
319	55085	179.3	1
319	55146	179.5	1
319	55207	179.7	1
319	55264	179.9	1
319	55326	180.1	1
319	55385	180.3	1
319	55447	180.5	1
319	55508	180.7	1
319	55564	180.9	1
319	55627	181.1	1
319	55686	181.3	1
319	55747	181.5	1
319	55808	181.7	1
319	55864	181.9	1
319	55927	182.1	1
319	55986	182.3	1
319	56047	182.5	1
319	56108	182.7	1
319	56164	182.9	1
319	56227	183.1	1
319	56286	183.3	1
319	56347	183.5	1
319	56408	183.7	1
319	56464	183.9	1
319	56527	184.1	1
319	56586	184.3	1
319	56647	184.5	1
319	56708	184.7	1
319	56764	184.9	1
319	56827	185.1	1
319	56886	185.3	1
319	56947	185.5	1
319	57008	185.7	1
319	57065	185.9	1
319	57127	186.1	1
319	57186	186.3	1
319	57247	186.5	1
319	57308	186.7	1
319	57365	186.9	1
319	57427	187.1	1
319	57486	187.3	1
319	57547	187.5	1
319	57608	187.7	1
319	57665	187.9	1
319	57727	188.1	1
319	57786	188.3	1
319	57847	188.5	1
319	57908	188.7	1
319	57965	188.9	1
319	58027	189.1	1
319	58086	189.3	1
319	58147	189.5	1
319	58208	189.7	1
319	58265	189.9	1
319	58327	190.1	1
319	58386	190.3	1
319	58447	190.5	1
319	58508	190.7	1
319	58565	190.9	1
319	58627	191.1	1
319	58686	191.3	1
319	58747	191.5	1
319	58808	191.7	1
319	58865	191.9	1
319	58927	192.1	1
319	58986	192.3	1
319	59048	192.5	1
319	59109	192.7	1
319	59166	192.9	1
319	59228	193.1	1
319	59287	193.3	1
319	59348	193.5	1
319	59409	193.7	1
319	59466	193.9	1
319	59528	194.1	1
319	59587	194.3	1
319	59648	194.5	1
319	59709	194.7	1
319	59766	194.9	1
319	59828	195.1	1
319	59887	195.3	1
319	59948	195.5	1
319	60009	195.7	1
319	60066	195.9	1
319	60128	196.1	1
319	60187	196.3	1
319	60248	196.5	1
319	60309	196.7	1
319	60366	196.9	1
319	60428	197.1	1
319	60487	197.3	1
319	60548	197.5	1
319	60609	197.7	1
319	60666	197.9	1
319	60728	198.1	1
319	60787	198.3	1
319	60848	198.5	1
319	60909	198.7	1
319	60966	198.9	1
319	61028	199.1	1
319	61087	199.3	1
319	61148	199.5	1
319	61209	199.7	1
319	61266	199.9	1
319	61328	200.1	1
319	61387	200.3	1
319	61448	200.5	1
319	61509	200.7	1
319	61566	200.9	1
319	61628	201.1	1
319	61687	201.3	1
319	61748	201.5	1
319	61809	201.7	1
319	61866	201.9	1
319	61928	202.1	1
319	61987	202.3	1
319	62048	202.5	1
319	62109	202.7	1
319	62166	202.9	1
319	62228	203.1	1
319	62287	203.3	1
319	62348	203.5	1
319	62409	203.7	1
319	62466	203.9	1
319	62528	204.1	1
319	62587	204.3	1
319	62648	204.5	1
319	62709	204.7	1
319	62766	204.9	1
319	62828	205.1	1
319	62887	205.3	1
319	62948	205.5	1
319	63009	205.7	1
319	63066	205.9	1
319	63128	206.1	1
319	63187	206.3	1
319	63248	206.5	1
319	63309	206.7	1
319	63366	206.9	1
319	63428	207.1	1
319	63487	207.3	1
319	63548	207.5	1
319	63609	207.7	1
319	63666	207.9	1
319	63728	208.1	1
319	63787	208.3	1
319	63848	208.5	1
319	63909	208.7	1
319	63966	208.9	1
319	64028	209.1	1
319	64087	209.3	1
319	64148	209.5	1
319	64210	209.7	1
319	64267	209.9	1
319	64329	210.1	1
319	64388	210.3	1
319	64448	210.5	1
319	64510	210.7	1
319	64567	210.9	1
319	64629	211.1	1
319	64688	211.3	1
319	64748	211.5	1
319	64810	211.7	1
319	64867	211.9	1
319	64929	212.1	1
319	64988	212.3	1
319	65048	212.5	1
319	65110	212.7	1
319	65167	212.9	1
319	65230	213.1	1
319	65288	213.3	1
319	65349	213.5	1
319	65410	213.7	1
319	65467	213.9	1
319	65530	214.1	1
319	65588	214.3	1
319	65649	214.5	1
319	65710	214.7	1
319	65767	214.9	1
319	65830	215.1	1
319	65888	215.3	1
319	65950	215.5	1
319	66010	215.7	1
319	66068	215.9	1
319	66130	216.1	1
319	66188	216.3	1
319	66250	216.5	1
319	66310	216.7	1
319	66368	216.9	1
319	66430	217.1	1
319	66488	217.3	1
319	66550	217.5	1
319	66610	217.7	1
319	66668	217.9	1
319	66730	218.1	1
319	66788	218.3	1
319	66850	218.5	1
319	66910	218.7	1
319	66969	218.9	1
319	67030	219.1	1
319	67088	219.3	1
319	67150	219.5	1
319	67211	219.7	1
319	67270	219.9	1
319	67330	220.1	1
319	67389	220.3	1
319	67450	220.5	1
319	67511	220.7	1
319	67570	220.9	1
319	67630	221.1	1
319	67689	221.3	1
319	67750	221.5	1
319	67811	221.7	1
319	67870	221.9	1
319	67930	222.1	1
319	67989	222.3	1
319	68050	222.5	1
319	68111	222.7	1
319	68170	222.9	1
319	68230	223.1	1
319	68289	223.3	1
319	68350	223.5	1
319	68411	223.7	1
319	68470	223.9	1
319	68530	224.1	1
319	68589	224.3	1
319	68650	224.5	1
319	68711	224.7	1
319	68770	224.9	1
319	68830	225.1	1
319	68889	225.3	1
319	68950	225.5	1
319	69012	225.7	1
319	69070	225.9	1
319	69131	226.1	1
319	69190	226.3	1
319	69250	226.5	1
319	69312	226.7	1
319	69370	226.9	1
319	69431	227.1	1
319	69490	227.3	1
319	69550	227.5	1
319	69612	227.7	1
319	69670	227.9	1
319	69731	228.1	1
319	69790	228.3	1
319	69850	228.5	1
319	69912	228.7	1
319	69970	228.9	1
319	70031	229.1	1
319	70090	229.3	1
319	70150	229.5	1
319	70212	229.7	1
319	70270	229.9	1
319	70331	230.1	1
319	70390	230.3	1
319	70450	230.5	1
319	70512	230.7	1
319	70570	230.9	1
319	70631	231.1	1
319	70690	231.3	1
319	70750	231.5	1
319	70812	231.7	1
319	70870	231.9	1
319	70931	232.1	1
319	70990	232.3	1
319	71050	232.5	1
319	71112	232.7	1
319	71170	232.9	1
319	71231	233.1	1
319	71290	233.3	1
319	71351	233.5	1
319	71412	233.7	1
319	71470	233.9	1
319	71532	234.1	1
319	71590	234.3	1
319	71651	234.5	1
319	71712	234.7	1
319	71770	234.9	1
319	71832	235.1	1
319	71890	235.3	1
319	71951	235.5	1
319	72012	235.7	1
319	72070	235.9	1
319	72132	236.1	1
319	72190	236.3	1
319	72251	236.5	1
319	72312	236.7	1
319	72370	236.9	1
319	72432	237.1	1
319	72490	237.3	1
319	72551	237.5	1
319	72612	237.7	1
319	72670	237.9	1
319	72732	238.1	1
319	72790	238.3	1
319	72851	238.5	1
319	72912	238.7	1
319	72970	238.9	1
319	73032	239.1	1
319	73090	239.3	1
319	73151	239.5	1
319	73213	239.7	1
319	73271	239.9	1
319	73333	240.1	1
319	73391	240.3	1
319	73451	240.5	1
319	73513	240.7	1
319	73571	240.9	1
319	73633	241.1	1
319	73691	241.3	1
319	73751	241.5	1
319	73813	241.7	1
319	73871	241.9	1
319	73933	242.1	1
319	73991	242.3	1
319	74051	242.5	1
319	74113	242.7	1
319	74171	242.9	1
319	74233	243.1	1
319	74291	243.3	1
319	74351	243.5	1
319	74413	243.7	1
319	74471	243.9	1
319	74533	244.1	1
319	74591	244.3	1
319	74651	244.5	1
319	74713	244.7	1
319	74771	244.9	1
319	74833	245.1	1
319	74891	245.3	1
319	74951	245.5	1
319	75013	245.7	1
319	75071	245.9	1
319	75133	246.1	1
319	75191	246.3	1
319	75251	246.5	1
319	75313	246.7	1
319	75371	246.9	1
319	75433	247.1	1
319	75491	247.3	1
319	75551	247.5	1
319	75613	247.7	1
319	75671	247.9	1
319	75733	248.1	1
319	75791	248.3	1
319	75851	248.5	1
319	75913	248.7	1
319	75971	248.9	1
319	76033	249.1	1
319	76091	249.3	1
319	76151	249.5	1
319	76213	249.7	1
319	76271	249.9	1
319	76333	250.1	1
319	76391	250.3	1
319	76451	250.5	1
319	76513	250.7	1
319	76571	250.9	1
319	76633	251.1	1
319	76691	251.3	1
319	76751	251.5	1
319	76813	251.7	1
319	76871	251.9	1
319	76933	252.1	1
319	76991	252.3	1
319	77051	252.5	1
319	77113	252.7	1
319	77171	252.9	1
319	77233	253.1	1
319	77291	253.3	1
319	77351	253.5	1
319	77413	253.7	1
319	77471	253.9	1
319	77533	254.1	1
319	77591	254.3	1
319	77651	254.5	1
319	77713	254.7	1
319	77771	254.9	1
319	77833	255.1	1
319	77891	255.3	1
319	77951	255.5	1
319	78013	255.7	1
319	78071	255.9	1